/*--------------------------------*- C++ -*----------------------------------*\
| =========                 |                                                 |
| \\      /  F ield         | foam-extend: Open Source CFD                    |
|  \\    /   O peration     | Version:     3.1                                |
|   \\  /    A nd           | Web:         http://www.extend-project.de       |
|    \\/     M anipulation  |                                                 |
\*---------------------------------------------------------------------------*/
FoamFile
{
    version     2.0;
    format      ascii;
    class       polyTopoChanger;
    location    "7e-09/polyMesh";
    object      meshModifiers;
}
// * * * * * * * * * * * * * * * * * * * * * * * * * * * * * * * * * * * * * //

1
(
movingFacesLayer
{
    type layerAdditionRemoval;
    faceZoneName movingFaces;
    minLayerThickness 1e-05;
    maxLayerThickness 1.5e-05;
    oldLayerThickness -1;
    active true;
}
)

// ************************************************************************* //
